ITEM: TIMESTEP
50000
ITEM: NUMBER OF ATOMS
2
ITEM: BOX BOUNDS mm mm mm
-2.3799691200000001e+02 2.7964003500000001e+02
-2.3799691200000001e+02 2.7964003500000001e+02
-2.3799691200000001e+02 2.7964003500000001e+02
ITEM: ATOMS id type x y z c_q[1] c_q[2] c_q[3] c_q[4] 
1 1 0.0000 0.000 0.000 1.000 0.0000 0.0000 0.00000 
2 3 0.0000 0.000 0.000 1.000 0.0000 0.0000 0.00000 
